HEADER
"PSFversion" "1.00"
"Time Stamp" "Nov 30 16:39:31 2012"
TYPE
"variable" STRUCT(
"value" FLOAT DOUBLE
) PROP( "key" "element" )
VALUE
"lambda" "variable" ( 50e-9 ) PROP( )
"beta" "variable" ( 2.62 ) PROP( )
"temp" "variable" ( 27 ) PROP( )
END
