HEADER
"PSFversion" "1.00"
"I0n" "MUX2"
"I4n I3n I2n I1n" "inv1"
