HEADER
"PSFversion" "1.00"
"__NEXT_FILE__" "MUX2_testbench"
