HEADER
"PSFversion" "1.00"
"NM1n NM0n" "gpdk090_nmos1v_spectre"
"PM1n PM0n" "gpdk090_pmos1v_spectre"
"Av" ":1v"
"Bv" ":2v"
"OUTv" ":3v"
"VDDv" ":4v"
"VSSv" ":5v"
