HEADER
"PSFversion" "1.00"
"design" "(\"lab9\" \"test2\" \"schematic\" \"\")"
"simulator" "spectre"
"temperature" "27"
"host" ""
"date" "Nov 29 11:59:30 2012"
"title" ""
"analysisList" "()"
END
