HEADER
"PSFversion" "1.00"
"Time Stamp" "Nov 29 11:59:30 2012"
TYPE
"variable" STRUCT(
"value" FLOAT DOUBLE
) PROP( "key" "element" )
VALUE
"beta" "variable" ( 2.5 ) PROP( )
"temp" "variable" ( 27 ) PROP( )
END
