HEADER
"PSFversion" "1.00"
"design" "(\"lab9\" \"testbench_1_5\" \"schematic\" \"\")"
"simulator" "spectre"
"temperature" "27"
"host" ""
"date" "Nov 30 16:17:29 2012"
"title" ""
"analysisList" "()"
END
