HEADER
"PSFversion" "1.00"
"Time Stamp" "Nov 30 16:17:29 2012"
TYPE
"variable" STRUCT(
"value" FLOAT DOUBLE
) PROP( "key" "element" )
VALUE
"lambda" "variable" ( 50e-9 ) PROP( )
"C_delay" "variable" ( 607e-3 ) PROP( )
"beta" "variable" ( 2.2 ) PROP( )
"temp" "variable" ( 27 ) PROP( )
END
