HEADER
"PSFversion" "1.00"
"gnd!v" "0v"
"I0n I1n" "inverter"
"V2n" "analogLib_vdc_spectre"
"V0n" "analogLib_vpulse_spectre"
