HEADER
"PSFversion" "1.00"
"__NEXT_FILE__" "testbench_1_6"
