HEADER
"PSFversion" "1.00"
"gnd!v" "0v"
"I3n I2n I1n I0n" "inverter"
"NM0n" "gpdk090_nmos1v_spectre"
"C0n" "gpdk090_mimcap_spectre"
"V2n" "analogLib_vdc_spectre"
"V0n" "analogLib_vpulse_spectre"
