HEADER
"PSFversion" "1.00"
"design" "(\"lab9\" \"l9_testbench\" \"schematic\" \"\")"
"simulator" "spectre"
"temperature" "27"
"host" ""
"date" "Dec  7 12:40:04 2012"
"title" ""
"analysisList" "()"
END
