HEADER
"PSFversion" "1.00"
"gnd!v" "0v"
"I16n I17n I18n I14n I15n" "inverter"
"V2n" "analogLib_vdc_spectre"
"V0n" "analogLib_vpulse_spectre"
