HEADER
"PSFversion" "1.00"
"design" "(\"lab9\" \"preLab_sim\" \"schematic\" \"\")"
"simulator" "spectre"
"temperature" "27"
"host" ""
"date" "Dec  7 12:26:48 2012"
"title" ""
"analysisList" "()"
END
