HEADER
"PSFversion" "1.00"
"Time Stamp" "Dec  7 12:26:48 2012"
TYPE
"variable" STRUCT(
"value" FLOAT DOUBLE
) PROP( "key" "element" )
VALUE
"lambda" "variable" ( 50e-9 ) PROP( )
"beta" "variable" ( 2 ) PROP( )
"temp" "variable" ( 27 ) PROP( )
END
