HEADER
"PSFversion" "1.00"
"design" "(\"lab8B\" \"MUX2_testbench\" \"schematic\" \"\")"
"simulator" "spectre"
"temperature" "27"
"host" ""
"date" "Nov 26 17:14:24 2012"
"title" ""
"analysisList" "()"
END
