HEADER
"PSFversion" "1.00"
"Time Stamp" "Nov 26 17:14:24 2012"
TYPE
"variable" STRUCT(
"value" FLOAT DOUBLE
) PROP( "key" "element" )
VALUE
"temp" "variable" ( 27 ) PROP( )
END
