HEADER
"PSFversion" "1.00"
"design" "(\"lab9\" \"testbench_1_4\" \"schematic\" \"\")"
"simulator" "spectre"
"temperature" "27"
"host" ""
"date" "Dec  8 16:27:18 2012"
"title" ""
"analysisList" "()"
END
