HEADER
"PSFversion" "1.00"
"design" "(\"Lab8\" \"Lab8_test\" \"schematic\" \"\")"
"simulator" "spectre"
"temperature" "27"
"host" ""
"date" "Nov  5 20:16:20 2012"
"title" ""
"analysisList" "()"
END
